 Q-Chem 5.2, Q-Chem, Inc., Pleasanton, CA (2019)
 Q-Chem 5.2.1 for Intel X86 EM64T Linux

User input:
--------------------------------------------------------------
$molecule
0 1
Si  -4.10590460651919     -1.48794161059892     -1.48768103765448
Si  -1.48748338422495     -4.10590053118169     -1.48814107887288
Si  -1.48780107439226     -1.48759558415852     -4.10614882948262
Si  -2.74295417317770     -2.74341557206170     -0.01830468637718
Si  -1.37633633632854     -1.37645048044529      1.37636321514838
Si  -2.74331656351603     -0.01824788719474     -2.74321003712404
Si  -1.37649741255324      1.37631213786770     -1.37631750405768
Si  -2.74349246182651      2.74321212356192      0.01817739224240
Si  -2.74327519725261      0.01802907482936      2.74333923264805
Si  -4.10605764270309      1.48765880196221      1.48792590013647
Si  -1.48751240642538      1.48772998700214      4.10579230352736
Si  -1.48770491694623      4.10597596037500      1.48750975235361
Si  -0.01802576342013     -2.74300337680089     -2.74353172980606
Si  1.37643024858199     -1.37631361601022     -1.37643087415900
Si  2.74316486801738     -2.74342792001410      0.01812252833418
Si  0.01809619920597     -2.74325080908000      2.74346575222715
Si  1.48755487611877     -4.10599488205805      1.48778528680472
Si  1.48754184103303     -1.48744409562884      4.10612946360857
Si  4.10579936795207     -1.48794953953605      1.48788807049434
Si  0.01800201269446      2.74333169634419     -2.74318185977972
Si  2.74343318331191      0.01824548073327     -2.74324999622699
Si  1.48759753468058      1.48773088794446     -4.10581257550261
Si  1.48777727836077      4.10596962075369     -1.48773532102841
Si  4.10620895156916      1.48772505538743     -1.48764921478160
Si  0.00000891115290     -0.00002185102284     -0.00001338178563
Si  2.74338406763354      2.74323521537523     -0.01820054068609
Si  -0.01803701981113      2.74331924499178      2.74298917195234
Si  2.74319850987980     -0.01810373218631      2.74324979861113
Si  1.37642155892202      1.37635804465882      1.37623227173773
H   -5.20616749875121     -0.78684787735134     -0.78641238490114
H   -4.72972544096818     -2.44380348547491     -2.44353549612187
H   -2.44350421145284     -4.72948825789835     -2.44399278607931
H   -0.78630523981433     -5.20632298828113     -0.78721563985069
H   -0.78689148937192     -0.78638005871666     -5.20655020465735
H   -2.44368268984984     -2.44358364843784     -4.72973815612924
H   -3.59968212087905     -3.60039428740089      0.85060571920235
H   -3.60027726651832      0.85074620713911     -3.59987438527244
H   -3.60038994675059      3.59999641298265     -0.85074322138786
H   -3.59998447151459     -0.85088464401261      3.60032170474714
H   -5.20656504538422      0.78662145728658      0.78699093289286
H   -4.72955068810586      2.44360228083953      2.44392522677343
H   -0.78632166209981      0.78674708821414      5.20616601522236
H   -2.44335088044330      2.44368290929665      4.72951849304057
H   -2.44343501228272      4.72976153535177      2.44352995327942
H   -0.78663695282855      5.20627404763012      0.78628182974225
H   0.85097388881206     -3.59974939924351     -3.60040246037358
H   3.59999979232927     -3.60031407154219     -0.85076077299947
H   -0.85087573520540     -3.60002050538168      3.60032772240437
H   2.44348009614370     -4.72976385097409      2.44361995496116
H   0.78626931011956     -5.20629771329086      0.78677707421036
H   2.44339128287705     -2.44323111852177      4.73008647226132
H   0.78636615362138     -0.78614127143181      5.20631037244355
H   5.20637539871771     -0.78703338637336      0.78694912350864
H   4.72921402575256     -2.44388717902981      2.44394521375621
H   -0.85092904509051      3.60016700249006     -3.60002112650884
H   3.60015154757007     -0.85070950440066     -3.60017949803435
H   2.44335212081545      2.44366568436786     -4.72968865527743
H   0.78643878640668      0.78647869991704     -5.20603930455668
H   0.78682649011408      5.20635365228389     -0.78652210158944
H   2.44361367248739      4.72963911373130     -2.44372268515114
H   4.72998548740793      2.44361688340618     -2.44350649523084
H   5.20648376383930      0.78660009819514     -0.78644513661045
H   3.60013275837918      3.60008401064600      0.85081940256177
H   0.85089989443202      3.60018793806786      3.59980798407646
H   3.60010047746854      0.85085638210852      3.60000584314645
$end

$rem
JOBTYPE              sp
EXCHANGE             b3lyp
BASIS                def2-tzvp
CIS_N_ROOTS          4
CIS_CONVERGENCE      8
CORRELATION          none
MAX_SCF_CYCLES       600
MAX_CIS_CYCLES       50
SCF_ALGORITHM        diis
MEM_STATIC           1200
MEM_TOTAL            8000
SYMMETRY             false
SYM_IGNORE           true
UNRESTRICTED         false
CIS_SINGLETS         true
CIS_TRIPLETS         true
CALC_SOC             true
SET_ITER             300
STS_MOM              true
--------------------------------------------------------------

             Standard Nuclear Orientation (Angstroms)
    I     Atom           X                Y                Z
 ----------------------------------------------------------------
    1      Si     -4.1059046065    -1.4879416106    -1.4876810377
    2      Si     -1.4874833842    -4.1059005312    -1.4881410789
    3      Si     -1.4878010744    -1.4875955842    -4.1061488295
    4      Si     -2.7429541732    -2.7434155721    -0.0183046864
    5      Si     -1.3763363363    -1.3764504804     1.3763632151
    6      Si     -2.7433165635    -0.0182478872    -2.7432100371
    7      Si     -1.3764974126     1.3763121379    -1.3763175041
    8      Si     -2.7434924618     2.7432121236     0.0181773922
    9      Si     -2.7432751973     0.0180290748     2.7433392326
   10      Si     -4.1060576427     1.4876588020     1.4879259001
   11      Si     -1.4875124064     1.4877299870     4.1057923035
   12      Si     -1.4877049169     4.1059759604     1.4875097524
   13      Si     -0.0180257634    -2.7430033768    -2.7435317298
   14      Si      1.3764302486    -1.3763136160    -1.3764308742
   15      Si      2.7431648680    -2.7434279200     0.0181225283
   16      Si      0.0180961992    -2.7432508091     2.7434657522
   17      Si      1.4875548761    -4.1059948821     1.4877852868
   18      Si      1.4875418410    -1.4874440956     4.1061294636
   19      Si      4.1057993680    -1.4879495395     1.4878880705
   20      Si      0.0180020127     2.7433316963    -2.7431818598
   21      Si      2.7434331833     0.0182454807    -2.7432499962
   22      Si      1.4875975347     1.4877308879    -4.1058125755
   23      Si      1.4877772784     4.1059696208    -1.4877353210
   24      Si      4.1062089516     1.4877250554    -1.4876492148
   25      Si      0.0000089112    -0.0000218510    -0.0000133818
   26      Si      2.7433840676     2.7432352154    -0.0182005407
   27      Si     -0.0180370198     2.7433192450     2.7429891720
   28      Si      2.7431985099    -0.0181037322     2.7432497986
   29      Si      1.3764215589     1.3763580447     1.3762322717
   30      H      -5.2061674988    -0.7868478774    -0.7864123849
   31      H      -4.7297254410    -2.4438034855    -2.4435354961
   32      H      -2.4435042115    -4.7294882579    -2.4439927861
   33      H      -0.7863052398    -5.2063229883    -0.7872156399
   34      H      -0.7868914894    -0.7863800587    -5.2065502047
   35      H      -2.4436826898    -2.4435836484    -4.7297381561
   36      H      -3.5996821209    -3.6003942874     0.8506057192
   37      H      -3.6002772665     0.8507462071    -3.5998743853
   38      H      -3.6003899468     3.5999964130    -0.8507432214
   39      H      -3.5999844715    -0.8508846440     3.6003217047
   40      H      -5.2065650454     0.7866214573     0.7869909329
   41      H      -4.7295506881     2.4436022808     2.4439252268
   42      H      -0.7863216621     0.7867470882     5.2061660152
   43      H      -2.4433508804     2.4436829093     4.7295184930
   44      H      -2.4434350123     4.7297615354     2.4435299533
   45      H      -0.7866369528     5.2062740476     0.7862818297
   46      H       0.8509738888    -3.5997493992    -3.6004024604
   47      H       3.5999997923    -3.6003140715    -0.8507607730
   48      H      -0.8508757352    -3.6000205054     3.6003277224
   49      H       2.4434800961    -4.7297638510     2.4436199550
   50      H       0.7862693101    -5.2062977133     0.7867770742
   51      H       2.4433912829    -2.4432311185     4.7300864723
   52      H       0.7863661536    -0.7861412714     5.2063103724
   53      H       5.2063753987    -0.7870333864     0.7869491235
   54      H       4.7292140258    -2.4438871790     2.4439452138
   55      H      -0.8509290451     3.6001670025    -3.6000211265
   56      H       3.6001515476    -0.8507095044    -3.6001794980
   57      H       2.4433521208     2.4436656844    -4.7296886553
   58      H       0.7864387864     0.7864786999    -5.2060393046
   59      H       0.7868264901     5.2063536523    -0.7865221016
   60      H       2.4436136725     4.7296391137    -2.4437226852
   61      H       4.7299854874     2.4436168834    -2.4435064952
   62      H       5.2064837638     0.7866000982    -0.7864451366
   63      H       3.6001327584     3.6000840106     0.8508194026
   64      H       0.8508998944     3.6001879381     3.5998079841
   65      H       3.6001004775     0.8508563821     3.6000058431
 ----------------------------------------------------------------

   11   -8418.0408304330      8.41e-09  Convergence criterion met
 Total energy in the final basis set =    -8418.0408304330

         TDDFT/TDA Excitation Energies
 ---------------------------------------------------

 Excited state   1: excitation energy (eV) =    4.2163
 Total energy for state  1:                 -8417.88588509 au
    Multiplicity: Triplet
    Trans. Mom.:  0.0000 X   0.0000 Y   0.0000 Z
    Strength   :     0.0000000000
    D(220) --> V(  1) amplitude =  0.8035
    D(221) --> V(  1) amplitude =  0.4549

 Excited state   2: excitation energy (eV) =    4.2163
 Total energy for state  2:                 -8417.88588436 au
    Multiplicity: Triplet
    Trans. Mom.:  0.0000 X   0.0000 Y   0.0000 Z
    Strength   :     0.0000000000
    D(220) --> V(  1) amplitude = -0.4561
    D(221) --> V(  1) amplitude =  0.8040

 Excited state   3: excitation energy (eV) =    4.2163
 Total energy for state  3:                 -8417.88588301 au
    Multiplicity: Triplet
    Trans. Mom.:  0.0000 X   0.0000 Y   0.0000 Z
    Strength   :     0.0000000000
    D(219) --> V(  1) amplitude =  0.9232

 Excited state   4: excitation energy (eV) =    4.3113
 Total energy for state  4:                 -8417.88239336 au
    Multiplicity: Triplet
    Trans. Mom.:  0.0000 X   0.0000 Y   0.0000 Z
    Strength   :     0.0000000000
    D(220) --> V(  2) amplitude =  0.5523
    D(220) --> V(  5) amplitude = -0.2837
    D(220) --> V(  6) amplitude =  0.2234
    D(221) --> V(  3) amplitude =  0.5441
    D(221) --> V(  4) amplitude =  0.2439

 Excited state   5: excitation energy (eV) =    4.3114
 Total energy for state  5:                 -8417.88239039 au
    Multiplicity: Triplet
    Trans. Mom.:  0.0000 X   0.0000 Y   0.0000 Z
    Strength   :     0.0000000000
    D(219) --> V(  2) amplitude =  0.4093
    D(219) --> V(  3) amplitude = -0.3689
    D(219) --> V(  5) amplitude =  0.3212
    D(220) --> V(  2) amplitude =  0.2894
    D(220) --> V(  3) amplitude =  0.2538
    D(221) --> V(  2) amplitude =  0.3000
    D(221) --> V(  3) amplitude = -0.2532
    D(221) --> V(  4) amplitude = -0.2225

 Excited state   6: excitation energy (eV) =    4.3114
 Total energy for state  6:                 -8417.88238947 au
    Multiplicity: Triplet
    Trans. Mom.:  0.0000 X   0.0000 Y   0.0000 Z
    Strength   :     0.0000000000
    D(219) --> V(  2) amplitude =  0.2738
    D(219) --> V(  3) amplitude =  0.4697
    D(219) --> V(  4) amplitude = -0.2425
    D(219) --> V(  6) amplitude = -0.2681
    D(220) --> V(  2) amplitude =  0.3501
    D(221) --> V(  2) amplitude = -0.2463
    D(221) --> V(  3) amplitude = -0.3101

 Excited state   7: excitation energy (eV) =    4.3494
 Total energy for state  7:                 -8417.88099362 au
    Multiplicity: Triplet
    Trans. Mom.:  0.0000 X   0.0000 Y   0.0000 Z
    Strength   :     0.0000000000
    D(219) --> V(  2) amplitude =  0.5579
    D(219) --> V(  3) amplitude =  0.2820
    D(220) --> V(  2) amplitude = -0.3096
    D(220) --> V(  5) amplitude =  0.2745
    D(221) --> V(  2) amplitude =  0.2830
    D(221) --> V(  3) amplitude =  0.3913
    D(221) --> V(  4) amplitude =  0.2605

 Excited state   8: excitation energy (eV) =    4.3494
 Total energy for state  8:                 -8417.88099271 au
    Multiplicity: Triplet
    Trans. Mom.:  0.0000 X   0.0000 Y   0.0000 Z
    Strength   :     0.0000000000
    D(219) --> V(  2) amplitude = -0.3136
    D(219) --> V(  3) amplitude =  0.4587
    D(220) --> V(  3) amplitude =  0.3746
    D(220) --> V(  6) amplitude =  0.2683
    D(221) --> V(  2) amplitude =  0.5087

 Excited state   9: excitation energy (eV) =    4.3494
 Total energy for state  9:                 -8417.88099168 au
    Multiplicity: Triplet
    Trans. Mom.:  0.0000 X   0.0000 Y   0.0000 Z
    Strength   :     0.0000000000
    D(219) --> V(  6) amplitude = -0.2206
    D(220) --> V(  3) amplitude =  0.6823
    D(221) --> V(  2) amplitude = -0.4556

 Excited state  10: excitation energy (eV) =    4.4171
 Total energy for state 10:                 -8417.87850421 au
    Multiplicity: Singlet
    Trans. Mom.:  0.0900 X  -0.1942 Y   0.1103 Z
    Strength   :     0.0062738348
    D(220) --> V(  1) amplitude =  0.4743
    D(221) --> V(  1) amplitude =  0.8593

 Excited state  11: excitation energy (eV) =    4.4171
 Total energy for state 11:                 -8417.87850402 au
    Multiplicity: Singlet
    Trans. Mom.: -0.1369 X   0.0459 Y   0.1927 Z
    Strength   :     0.0062735584
    D(220) --> V(  1) amplitude =  0.8572
    D(221) --> V(  1) amplitude = -0.4675

 Excited state  12: excitation energy (eV) =    4.4172
 Total energy for state 12:                 -8417.87850134 au
    Multiplicity: Singlet
    Trans. Mom.:  0.1765 X   0.1348 Y   0.0933 Z
    Strength   :     0.0062779542
    D(219) --> V(  1) amplitude =  0.9754

 Excited state  13: excitation energy (eV) =    4.5031
 Total energy for state 13:                 -8417.87534630 au
    Multiplicity: Singlet
    Trans. Mom.:  0.0001 X   0.0000 Y  -0.0001 Z
    Strength   :     0.0000000015
    D(219) --> V(  2) amplitude =  0.3176
    D(220) --> V(  2) amplitude =  0.9007

 Excited state  14: excitation energy (eV) =    4.5031
 Total energy for state 14:                 -8417.87534548 au
    Multiplicity: Singlet
    Trans. Mom.:  0.0000 X   0.0001 Y   0.0001 Z
    Strength   :     0.0000000011
    D(219) --> V(  2) amplitude = -0.5047
    D(221) --> V(  3) amplitude =  0.8254

 Excited state  15: excitation energy (eV) =    4.5031
 Total energy for state 15:                 -8417.87534456 au
    Multiplicity: Singlet
    Trans. Mom.: -0.0000 X  -0.0000 Y   0.0001 Z
    Strength   :     0.0000000022
    D(219) --> V(  3) amplitude =  0.7316
    D(220) --> V(  3) amplitude = -0.3856
    D(221) --> V(  2) amplitude = -0.4890

 Excited state  16: excitation energy (eV) =    4.5188
 Total energy for state 16:                 -8417.87476820 au
    Multiplicity: Singlet
    Trans. Mom.: -0.0316 X  -0.0258 Y  -0.0179 Z
    Strength   :     0.0002199822
    D(219) --> V(  3) amplitude =  0.2308
    D(220) --> V(  3) amplitude = -0.5589
    D(221) --> V(  2) amplitude =  0.7637

 Excited state  17: excitation energy (eV) =    4.5188
 Total energy for state 17:                 -8417.87476693 au
    Multiplicity: Singlet
    Trans. Mom.: -0.0312 X   0.0229 Y   0.0221 Z
    Strength   :     0.0002192803
    D(219) --> V(  2) amplitude =  0.6211
    D(219) --> V(  3) amplitude =  0.3503
    D(220) --> V(  2) amplitude = -0.3688
    D(220) --> V(  3) amplitude =  0.3397
    D(221) --> V(  3) amplitude =  0.4461

 Excited state  18: excitation energy (eV) =    4.5188
 Total energy for state 18:                 -8417.87476677 au
    Multiplicity: Singlet
    Trans. Mom.:  0.0037 X  -0.0281 Y   0.0343 Z
    Strength   :     0.0002185897
    D(219) --> V(  2) amplitude = -0.4220
    D(219) --> V(  3) amplitude =  0.4674
    D(220) --> V(  3) amplitude =  0.6174
    D(221) --> V(  2) amplitude =  0.3695

 ---------------------------------------------------

                    Orbital Energies (a.u.)
 --------------------------------------------------------------

 Alpha MOs
 -- Occupied --
-66.1201 -66.1192 -66.1192 -66.1191 -66.1191 -66.1136 -66.1136 -66.1136
-66.1136 -66.1136 -66.1136 -66.1136 -66.1136 -66.1136 -66.1136 -66.1136
-66.1136 -66.1109 -66.1109 -66.1109 -66.1109 -66.1109 -66.1109 -66.1109
-66.1109 -66.1109 -66.1109 -66.1109 -66.1109  -5.2828  -5.2819  -5.2819
 -5.2818  -5.2818  -5.2773  -5.2773  -5.2773  -5.2773  -5.2773  -5.2773
 -5.2773  -5.2773  -5.2773  -5.2773  -5.2773  -5.2773  -5.2751  -5.2751
 -5.2751  -5.2751  -5.2751  -5.2751  -5.2751  -5.2751  -5.2751  -5.2751
 -5.2751  -5.2751  -3.6404  -3.6404  -3.6404  -3.6395  -3.6394  -3.6394
 -3.6394  -3.6394  -3.6394  -3.6394  -3.6394  -3.6394  -3.6394  -3.6394
 -3.6394  -3.6351  -3.6351  -3.6351  -3.6351  -3.6351  -3.6351  -3.6351
 -3.6351  -3.6351  -3.6351  -3.6351  -3.6351  -3.6350  -3.6350  -3.6350
 -3.6350  -3.6350  -3.6350  -3.6350  -3.6350  -3.6350  -3.6350  -3.6350
 -3.6350  -3.6346  -3.6346  -3.6346  -3.6346  -3.6346  -3.6346  -3.6346
 -3.6346  -3.6346  -3.6346  -3.6346  -3.6346  -3.6330  -3.6330  -3.6330
 -3.6330  -3.6330  -3.6330  -3.6330  -3.6330  -3.6330  -3.6330  -3.6330
 -3.6330  -3.6326  -3.6326  -3.6326  -3.6326  -3.6326  -3.6326  -3.6326
 -3.6326  -3.6326  -3.6326  -3.6326  -3.6326  -3.6324  -3.6324  -3.6324
 -3.6324  -3.6324  -3.6324  -3.6324  -3.6324  -3.6324  -3.6324  -3.6324
 -3.6324  -0.6292  -0.6036  -0.6036  -0.6036  -0.5778  -0.5778  -0.5778
 -0.5651  -0.5616  -0.5616  -0.5533  -0.5533  -0.5533  -0.5242  -0.5242
 -0.5242  -0.4880  -0.4880  -0.4855  -0.4855  -0.4855  -0.4768  -0.4653
 -0.4653  -0.4653  -0.4366  -0.4366  -0.4366  -0.4004  -0.3846  -0.3846
 -0.3846  -0.3762  -0.3716  -0.3716  -0.3702  -0.3702  -0.3702  -0.3590
 -0.3510  -0.3510  -0.3510  -0.3491  -0.3491  -0.3435  -0.3435  -0.3435
 -0.3347  -0.3347  -0.3347  -0.3341  -0.3341  -0.3341  -0.3074  -0.3074
 -0.3074  -0.2969  -0.2969  -0.2969  -0.2930  -0.2930  -0.2883  -0.2883
 -0.2883  -0.2753  -0.2753  -0.2753  -0.2721  -0.2721  -0.2657  -0.2605
 -0.2605  -0.2605  -0.2544  -0.2544  -0.2544

          Ground-State Mulliken Net Atomic Charges

     Atom                 Charge (a.u.)
  ----------------------------------------
      1 Si                    0.041822
      2 Si                    0.041794
      3 Si                    0.041786
      4 Si                    0.035013
      5 Si                   -0.020032
      6 Si                    0.035012
      7 Si                   -0.020038
      8 Si                    0.035021
      9 Si                    0.035034
     10 Si                    0.041776
     11 Si                    0.041791
     12 Si                    0.041809
     13 Si                    0.035019
     14 Si                   -0.020037
     15 Si                    0.035029
     16 Si                    0.035012
     17 Si                    0.041805
     18 Si                    0.041813
     19 Si                    0.041774
     20 Si                    0.035027
     21 Si                    0.035012
     22 Si                    0.041821
     23 Si                    0.041791
     24 Si                    0.041813
     25 Si                    0.216748
     26 Si                    0.035013
     27 Si                    0.035028
     28 Si                    0.035026
     29 Si                   -0.020027
     30 H                    -0.024425
     31 H                    -0.030135
     32 H                    -0.030134
     33 H                    -0.024408
     34 H                    -0.024395
     35 H                    -0.030135
     36 H                    -0.033670
     37 H                    -0.033666
     38 H                    -0.033648
     39 H                    -0.033647
     40 H                    -0.024393
     41 H                    -0.030140
     42 H                    -0.024416
     43 H                    -0.030146
     44 H                    -0.030141
     45 H                    -0.024415
     46 H                    -0.033663
     47 H                    -0.033648
     48 H                    -0.033647
     49 H                    -0.030142
     50 H                    -0.024412
     51 H                    -0.030145
     52 H                    -0.024415
     53 H                    -0.024405
     54 H                    -0.030135
     55 H                    -0.033649
     56 H                    -0.033649
     57 H                    -0.030146
     58 H                    -0.024428
     59 H                    -0.024408
     60 H                    -0.030137
     61 H                    -0.030139
     62 H                    -0.024407
     63 H                    -0.033655
     64 H                    -0.033657
     65 H                    -0.033655
  ----------------------------------------
  Sum of atomic charges =     0.000000

                    Cartesian Multipole Moments
 -----------------------------------------------------------------
    Charge (ESU x 10^10)
                 0.0000
    Dipole Moment (Debye)
         X       0.0003      Y      -0.0001      Z      -0.0006
       Tot       0.0007
    Quadrupole Moments (Debye-Ang)
        XX    -414.8019     XY       0.0002     YY    -414.8036
        XZ      -0.0006     YZ      -0.0012     ZZ    -414.8045

 Total job time:  403265.55s(wall), 381098.77s(cpu)
        *  Thank you very much for using Q-Chem.  Have a nice day.  *
