 Q-Chem 5.1, Q-Chem, Inc., Pleasanton, CA (2018)
 Q-Chem 5.1.1 for Intel X86 EM64T Linux

User input:
--------------------------------------------------------------

$molecule
   0 1
  Si  -3.24265231889937     -2.38334458503207      0.27803297447483
  Si  -1.40591694413207     -1.42350072847822      1.41051499712997
  Ge  -2.37942253447645      0.26943320509877     -3.29538416014769
  Si  -1.40616744946373      1.42321318242267     -1.41046793531884
  Si  -3.24310918487661      2.38203400140789     -0.27741479264157
  Ge  -2.38047699037111     -0.27090967716459      3.29552114911402
  Si  0.27443584571842     -3.25807974827085     -2.37581823125447
  Si  1.40704864912609     -1.42389376205462     -1.40891314300352
  Si  3.24302078943836     -2.38364608432291     -0.27509298216707
  Si  -0.27299505980648     -3.25764794130930      2.37690489746276
  Si  -0.27517396763290      3.25847518374684     -2.37730507637438
  Ge  2.38176779082064     -0.27100621215624     -3.29345291357991
  Ge  0.00040204561243      0.00029818139881      0.00019862420581
  Si  3.24081446296709      2.38719977615846      0.27513239998005
  Si  0.27220218591341      3.25759417377216      2.37663587393948
  Ge  2.38207785443902      0.26989771520065      3.29251781238371
  Si  1.40642340589403      1.42470303304013      1.40943654296310
  H   -2.82164041195549     -3.14368106801561     -0.92260564084621
  H   -3.90776775865540     -3.32152480874825      1.21825342781719
  H   -4.22896803241423     -1.35658567750770     -0.13375903351185
  H   -1.32153561558209     -0.08770100137326     -4.35468563811790
  H   -3.10570269034257     -1.02307721626250     -2.88307101503562
  H   -3.41118861570748      1.21046576586461     -3.95130275301968
  H   -2.82172632257944      3.14239674135164      0.92308993315719
  H   -3.90948804785767      3.32014509012347     -1.21678642687270
  H   -4.22857305926134      1.35469351727120      0.13484546890130
  H   -1.32271468739700      0.08618503698846      4.35512743110957
  H   -3.10685876057347      1.02160882072127      2.88365468175355
  H   -3.41207745571152     -1.21242830789274      3.95094273572252
  H   -0.93096181486103     -2.83816358344869     -3.12800457964555
  H   1.21533506632323     -3.90927489566907     -3.32312442260322
  H   -0.12656655944796     -4.25646935251990     -1.35624191889259
  H   4.23188632755675     -1.35748349578602      0.13199153731226
  H   2.82163970501599     -3.13876049844644      0.92864015716240
  H   3.90504510431961     -3.32662616157423     -1.21267537167892
  H   0.92902974196407     -2.83736681683218      3.13430898445912
  H   -1.21574475941665     -3.91334402431946      3.31923035256887
  H   0.13344027086495     -4.25250888407099      1.35602351724383
  H   0.13010944980310      4.25459497546301     -1.35721303387491
  H   0.92726623694926      2.83908271471796     -3.13457102816987
  H   -1.21879669070346      3.91254422721317     -3.31990900823617
  H   3.10549058192753      1.02309736115868     -2.88207036297366
  H   3.41575663195353     -1.21132795781370     -3.94696789463294
  H   1.32466941023278      0.08336120605001     -4.35474176751681
  H   3.90326350482133      3.32962117232744      1.21293860934207
  H   4.22999761846932      1.36243983401489     -0.13462191385940
  H   2.81727560343400      3.14351687944230     -0.92711260291734
  H   1.21300278089562      3.90973141708305      3.32338841390221
  H   -0.13040226378381      4.25571852661557      1.35740780982975
  H   -0.93235400787467      2.83614688797917      3.12933754360238
  H   3.41608045579564      1.20969666966209      3.94674708466380
  H   1.32548681809111     -0.08617655539269      4.35368315152334
  H   3.10601366543672     -1.02336625183214      2.87880753516772
$end

$rem
   JOBTYPE              sp
   EXCHANGE             b3lyp
   BASIS                def2-tzvp
   CIS_N_ROOTS          4
   CIS_CONVERGENCE      8
   CORRELATION          none
   MAX_SCF_CYCLES       600
   MAX_CIS_CYCLES       50
   SCF_ALGORITHM        diis
   MEM_STATIC           1200
   MEM_TOTAL            8000
   SYMMETRY             false
   SYM_IGNORE           true
   UNRESTRICTED         false
   CIS_SINGLETS         true
   CIS_TRIPLETS         true
   CALC_SOC             true
   SET_ITER             300
   STS_MOM              true
$end
--------------------------------------------------------------

             Standard Nuclear Orientation (Angstroms)
    I     Atom           X                Y                Z
 ----------------------------------------------------------------
    1      Si     -3.2426523189    -2.3833445850     0.2780329745
    2      Si     -1.4059169441    -1.4235007285     1.4105149971
    3      Ge     -2.3794225345     0.2694332051    -3.2953841601
    4      Si     -1.4061674495     1.4232131824    -1.4104679353
    5      Si     -3.2431091849     2.3820340014    -0.2774147926
    6      Ge     -2.3804769904    -0.2709096772     3.2955211491
    7      Si      0.2744358457    -3.2580797483    -2.3758182313
    8      Si      1.4070486491    -1.4238937621    -1.4089131430
    9      Si      3.2430207894    -2.3836460843    -0.2750929822
   10      Si     -0.2729950598    -3.2576479413     2.3769048975
   11      Si     -0.2751739676     3.2584751837    -2.3773050764
   12      Ge      2.3817677908    -0.2710062122    -3.2934529136
   13      Ge      0.0004020456     0.0002981814     0.0001986242
   14      Si      3.2408144630     2.3871997762     0.2751324000
   15      Si      0.2722021859     3.2575941738     2.3766358739
   16      Ge      2.3820778544     0.2698977152     3.2925178124
   17      Si      1.4064234059     1.4247030330     1.4094365430
   18      H      -2.8216404120    -3.1436810680    -0.9226056408
   19      H      -3.9077677587    -3.3215248087     1.2182534278
   20      H      -4.2289680324    -1.3565856775    -0.1337590335
   21      H      -1.3215356156    -0.0877010014    -4.3546856381
   22      H      -3.1057026903    -1.0230772163    -2.8830710150
   23      H      -3.4111886157     1.2104657659    -3.9513027530
   24      H      -2.8217263226     3.1423967414     0.9230899332
   25      H      -3.9094880479     3.3201450901    -1.2167864269
   26      H      -4.2285730593     1.3546935173     0.1348454689
   27      H      -1.3227146874     0.0861850370     4.3551274311
   28      H      -3.1068587606     1.0216088207     2.8836546818
   29      H      -3.4120774557    -1.2124283079     3.9509427357
   30      H      -0.9309618149    -2.8381635834    -3.1280045796
   31      H       1.2153350663    -3.9092748957    -3.3231244226
   32      H      -0.1265665594    -4.2564693525    -1.3562419189
   33      H       4.2318863276    -1.3574834958     0.1319915373
   34      H       2.8216397050    -3.1387604984     0.9286401572
   35      H       3.9050451043    -3.3266261616    -1.2126753717
   36      H       0.9290297420    -2.8373668168     3.1343089845
   37      H      -1.2157447594    -3.9133440243     3.3192303526
   38      H       0.1334402709    -4.2525088841     1.3560235172
   39      H       0.1301094498     4.2545949755    -1.3572130339
   40      H       0.9272662369     2.8390827147    -3.1345710282
   41      H      -1.2187966907     3.9125442272    -3.3199090082
   42      H       3.1054905819     1.0230973612    -2.8820703630
   43      H       3.4157566320    -1.2113279578    -3.9469678946
   44      H       1.3246694102     0.0833612061    -4.3547417675
   45      H       3.9032635048     3.3296211723     1.2129386093
   46      H       4.2299976185     1.3624398340    -0.1346219139
   47      H       2.8172756034     3.1435168794    -0.9271126029
   48      H       1.2130027809     3.9097314171     3.3233884139
   49      H      -0.1304022638     4.2557185266     1.3574078098
   50      H      -0.9323540079     2.8361468880     3.1293375436
   51      H       3.4160804558     1.2096966697     3.9467470847
   52      H       1.3254868181    -0.0861765554     4.3536831515
   53      H       3.1060136654    -1.0233662518     2.8788075352
 ----------------------------------------------------------------

   12  -13881.2305559541      5.16e-09  Convergence criterion met
 Total energy in the final basis set =   -13881.2305559541

         TDDFT/TDA Excitation Energies
 ---------------------------------------------------

 Excited state   1: excitation energy (eV) =    4.3527
 Total energy for state  1:                -13881.07059891 au
    Multiplicity: Triplet
    Trans. Mom.:  0.0000 X   0.0000 Y   0.0000 Z
    Strength   :     0.0000000000
    D(181) --> V(  1) amplitude =  0.9554

 Excited state   2: excitation energy (eV) =    4.3598
 Total energy for state  2:                -13881.07033550 au
    Multiplicity: Triplet
    Trans. Mom.:  0.0000 X   0.0000 Y   0.0000 Z
    Strength   :     0.0000000000
    D(182) --> V(  1) amplitude =  0.9541

 Excited state   3: excitation energy (eV) =    4.3786
 Total energy for state  3:                -13881.06964568 au
    Multiplicity: Triplet
    Trans. Mom.:  0.0000 X   0.0000 Y   0.0000 Z
    Strength   :     0.0000000000
    D(180) --> V(  1) amplitude =  0.9456

 Excited state   4: excitation energy (eV) =    4.7467
 Total energy for state  4:                -13881.05611951 au
    Multiplicity: Singlet
    Trans. Mom.:  0.0231 X   0.0130 Y   0.8229 Z
    Strength   :     0.0788294625
    D(182) --> V(  1) amplitude =  0.9786

 Excited state   5: excitation energy (eV) =    4.7548
 Total energy for state  5:                -13881.05581949 au
    Multiplicity: Singlet
    Trans. Mom.: -0.8434 X   0.0015 Y   0.0245 Z
    Strength   :     0.0829364124
    D(181) --> V(  1) amplitude =  0.9782

 Excited state   6: excitation energy (eV) =    4.7830
 Total energy for state  6:                -13881.05478566 au
    Multiplicity: Singlet
    Trans. Mom.: -0.0017 X  -0.8005 Y   0.0162 Z
    Strength   :     0.0751201040
    D(180) --> V(  1) amplitude =  0.9741

 Excited state   7: excitation energy (eV) =    4.7863
 Total energy for state  7:                -13881.05466227 au
    Multiplicity: Triplet
    Trans. Mom.:  0.0000 X   0.0000 Y   0.0000 Z
    Strength   :     0.0000000000
    D(179) --> V(  1) amplitude =  0.4434
    D(180) --> V(  3) amplitude = -0.2542
    D(181) --> V(  5) amplitude =  0.2231
    D(182) --> V(  2) amplitude = -0.7828

 Excited state   8: excitation energy (eV) =    5.0686
 Total energy for state  8:                -13881.04428677 au
    Multiplicity: Singlet
    Trans. Mom.:  0.0261 X   0.0003 Y   0.0002 Z
    Strength   :     0.0000844127
    D(179) --> V(  1) amplitude =  0.7483
    D(180) --> V(  3) amplitude = -0.4769
    D(182) --> V(  2) amplitude = -0.4321

 ---------------------------------------------------

                    Orbital Energies (a.u.)
 --------------------------------------------------------------

 Alpha MOs
 -- Occupied --
*******-398.738-398.738-398.738-398.738 -66.120 -66.120 -66.120
-66.120 -66.113 -66.113 -66.113 -66.113 -66.113 -66.113 -66.113
-66.113 -49.792 -49.782 -49.782 -49.782 -49.782 -44.313 -44.313
-44.313 -44.302 -44.302 -44.302 -44.302 -44.302 -44.302 -44.302
-44.302 -44.302 -44.302 -44.302 -44.302  -6.224  -6.216  -6.216
 -6.216  -6.216  -5.283  -5.283  -5.283  -5.283  -5.277  -5.277
 -5.277  -5.277  -5.277  -5.277  -5.277  -5.277  -4.396  -4.395
 -4.395  -4.387  -4.387  -4.387  -4.387  -4.387  -4.387  -4.387
 -4.387  -4.387  -4.387  -4.387  -4.387  -3.641  -3.641  -3.641
 -3.641  -3.641  -3.641  -3.641  -3.641  -3.640  -3.640  -3.640
 -3.640  -3.635  -3.635  -3.635  -3.635  -3.635  -3.635  -3.635
 -3.635  -3.634  -3.634  -3.634  -3.634  -3.634  -3.634  -3.634
 -3.634  -3.634  -3.634  -3.634  -3.634  -3.634  -3.634  -3.634
 -3.634  -1.218  -1.218  -1.218  -1.217  -1.217  -1.211  -1.211
 -1.211  -1.211  -1.211  -1.211  -1.211  -1.211  -1.210  -1.210
 -1.210  -1.210  -1.208  -1.208  -1.208  -1.208  -1.208  -1.208
 -1.208  -1.208  -0.618  -0.594  -0.593  -0.592  -0.556  -0.554
 -0.552  -0.550  -0.545  -0.542  -0.542  -0.542  -0.539  -0.459
 -0.458  -0.458  -0.416  -0.380  -0.378  -0.376  -0.376  -0.372
 -0.372  -0.372  -0.371  -0.370  -0.358  -0.356  -0.356  -0.355
 -0.355  -0.354  -0.353  -0.350  -0.350  -0.348  -0.343  -0.343
 -0.343  -0.341  -0.341  -0.308  -0.308  -0.306  -0.292  -0.290
 -0.282  -0.281  -0.280  -0.266  -0.265  -0.264

          Ground-State Mulliken Net Atomic Charges

     Atom                 Charge (a.u.)
  ----------------------------------------
      1 Si                    0.102214
      2 Si                   -0.036189
      3 Ge                    0.013035
      4 Si                   -0.036115
      5 Si                    0.102255
      6 Ge                    0.013049
      7 Si                    0.097801
      8 Si                   -0.035882
      9 Si                    0.102104
     10 Si                    0.097867
     11 Si                    0.097775
     12 Ge                    0.013041
     13 Ge                    0.037559
     14 Si                    0.102192
     15 Si                    0.097800
     16 Ge                    0.013066
     17 Si                   -0.035986
     18 H                    -0.029547
     19 H                    -0.035026
     20 H                    -0.033649
     21 H                     0.003122
     22 H                     0.007453
     23 H                    -0.002757
     24 H                    -0.029566
     25 H                    -0.035034
     26 H                    -0.033679
     27 H                     0.003063
     28 H                     0.007474
     29 H                    -0.002730
     30 H                    -0.026623
     31 H                    -0.034513
     32 H                    -0.034830
     33 H                    -0.033599
     34 H                    -0.029509
     35 H                    -0.035072
     36 H                    -0.026586
     37 H                    -0.034511
     38 H                    -0.034903
     39 H                    -0.034867
     40 H                    -0.026612
     41 H                    -0.034501
     42 H                     0.007432
     43 H                    -0.002784
     44 H                     0.003056
     45 H                    -0.035051
     46 H                    -0.033599
     47 H                    -0.029518
     48 H                    -0.034535
     49 H                    -0.034793
     50 H                    -0.026603
     51 H                    -0.002800
     52 H                     0.003116
     53 H                     0.007496
  ----------------------------------------
  Sum of atomic charges =     0.000000

                    Cartesian Multipole Moments
 -----------------------------------------------------------------
    Charge (ESU x 10^10)
                 0.0000
    Dipole Moment (Debye)
         X       0.0030      Y       0.0003      Z       0.0026
       Tot       0.0040
    Quadrupole Moments (Debye-Ang)
        XX    -279.8041     XY       0.0036     YY    -279.1217
        XZ       0.0056     YZ       0.0017     ZZ    -280.7020

 Total job time:  14285.48s(wall), 51108.28s(cpu)
        *  Thank you very much for using Q-Chem.  Have a nice day.  *
