 Q-Chem 5.2, Q-Chem, Inc., Pleasanton, CA (2019)
 Q-Chem 5.2.1 for Intel X86 EM64T Linux

User input:
--------------------------------------------------------------
$molecule
0 1
Si  -3.22541988490863     -2.36518869816157      0.26110467437661
Si  -1.38693207899072     -1.38227308325625      1.37965453317913
Si  -2.37175217165820      0.27616777099927     -3.21944528385479
Si  -1.37988465990324      1.38696841790779     -1.38058598599964
Si  -3.21347234134992      2.38017005778453     -0.26275377343287
Si  -2.37184815958123     -0.26505240379169      3.21811363421243
Si  0.25995883129836     -3.21456684763183     -2.37753283472080
Si  1.37983708192913     -1.38238835339761     -1.38394950693962
Si  3.21430231919559     -2.38034179525241     -0.27138520982889
Si  -0.27456363719240     -3.22318040864006      2.36535093437363
Si  -0.25831614217415      3.22241347761960     -2.36607047387938
Si  2.37103409854994     -0.26496120014003     -3.21881339573160
Si  -0.00075589704777     -0.00019665320599      0.00069703883571
Si  3.22192457305030      2.36469428880175      0.27114754088747
Si  0.27187891998775      3.21481115023008      2.38093332956574
Si  2.37402042346338      0.25608160395838      3.21909007519675
Si  1.38327823395717      1.37789180197072      1.38634793445711
H   -2.81304235666262     -3.11029455609337     -0.95159102485279
H   -3.85694071847842     -3.32091152428435      1.20670142414474
H   -4.23825609389247     -1.35447276346113     -0.12538716657822
H   -1.36494346885665     -0.11056479308854     -4.23621363472776
H   -3.11950250966442     -0.93540177600546     -2.80854598338888
H   -3.32598021980964      1.22684658199449     -3.84560578882972
H   -2.79666103134991      3.12569660121040      0.94822733688891
H   -3.84111801021519      3.33718938350552     -1.20959766095853
H   -4.23088313389568      1.37511722215285      0.12651933798345
H   -1.36102372861398      0.11411655607515      4.23370441621727
H   -3.11165990571842      0.95178206820032      2.80853119669625
H   -3.33253981623748     -1.20870662707112      3.84503435586565
H   -0.95463687588777     -2.79986556259499     -3.11844264105715
H   1.20454000437386     -3.83975225496676     -3.33846541600969
H   -0.12377704811917     -4.23332737780247     -1.37175902671791
H   4.23475102662681     -1.37676425682795      0.11365759517856
H   2.80132687496334     -3.12528607532287      0.94118287886444
H   3.83671254386340     -3.33833396104696     -1.22078892976681
H   0.93985342639365     -2.81454903916614      3.10976889124965
H   -1.22235384784098     -3.85026510991224      3.32190852574854
H   0.10802547381450     -4.23836241798384      1.35561044777347
H   0.12856561976561      4.23557624179016     -1.35582004494003
H   0.95453752918474      2.80862943120548     -3.11036011043144
H   -1.20273803568579      3.85410714215148     -3.32283432654941
H   3.11603158036243      0.94748955486328     -2.80578338924299
H   3.32772713791738     -1.21276204680625     -3.84564931339414
H   1.36399751435117      0.12145596275615     -4.23534847914355
H   3.84940998883766      3.32321337354942      1.21665117765369
H   4.23634169602775      1.35302617858319     -0.10867719148476
H   2.81402406281567      3.10643498959847     -0.94498672001279
H   1.22177474013701      3.83565407065407      3.33947174521752
H   -0.10973459891651      4.23550165742999      1.37626763623154
H   -0.94255423185594      2.80473084080622      3.12450312653335
H   3.33379638113423      1.19973721794448      3.84738967892241
H   1.36764952239100     -0.13057819543746      4.23625860577050
H   3.11599100011544     -0.95715586239395      2.80256524044961
$end

$rem
JOBTYPE              sp
EXCHANGE             b3lyp
BASIS                def2-tzvp
CIS_N_ROOTS          4
CIS_CONVERGENCE      8
CORRELATION          none
MAX_SCF_CYCLES       600
MAX_CIS_CYCLES       50
SCF_ALGORITHM        diis
MEM_STATIC           1200
MEM_TOTAL            8000
SYMMETRY             false
SYM_IGNORE           true
UNRESTRICTED         false
CIS_SINGLETS         true
CIS_TRIPLETS         true
CALC_SOC             true
SET_ITER             300
STS_MOM              true
--------------------------------------------------------------

             Standard Nuclear Orientation (Angstroms)
    I     Atom           X                Y                Z
 ----------------------------------------------------------------
    1      Si     -3.2254198849    -2.3651886982     0.2611046744
    2      Si     -1.3869320790    -1.3822730833     1.3796545332
    3      Si     -2.3717521717     0.2761677710    -3.2194452839
    4      Si     -1.3798846599     1.3869684179    -1.3805859860
    5      Si     -3.2134723413     2.3801700578    -0.2627537734
    6      Si     -2.3718481596    -0.2650524038     3.2181136342
    7      Si      0.2599588313    -3.2145668476    -2.3775328347
    8      Si      1.3798370819    -1.3823883534    -1.3839495069
    9      Si      3.2143023192    -2.3803417953    -0.2713852098
   10      Si     -0.2745636372    -3.2231804086     2.3653509344
   11      Si     -0.2583161422     3.2224134776    -2.3660704739
   12      Si      2.3710340985    -0.2649612001    -3.2188133957
   13      Si     -0.0007558970    -0.0001966532     0.0006970388
   14      Si      3.2219245731     2.3646942888     0.2711475409
   15      Si      0.2718789200     3.2148111502     2.3809333296
   16      Si      2.3740204235     0.2560816040     3.2190900752
   17      Si      1.3832782340     1.3778918020     1.3863479345
   18      H      -2.8130423567    -3.1102945561    -0.9515910249
   19      H      -3.8569407185    -3.3209115243     1.2067014241
   20      H      -4.2382560939    -1.3544727635    -0.1253871666
   21      H      -1.3649434689    -0.1105647931    -4.2362136347
   22      H      -3.1195025097    -0.9354017760    -2.8085459834
   23      H      -3.3259802198     1.2268465820    -3.8456057888
   24      H      -2.7966610313     3.1256966012     0.9482273369
   25      H      -3.8411180102     3.3371893835    -1.2095976610
   26      H      -4.2308831339     1.3751172222     0.1265193380
   27      H      -1.3610237286     0.1141165561     4.2337044162
   28      H      -3.1116599057     0.9517820682     2.8085311967
   29      H      -3.3325398162    -1.2087066271     3.8450343559
   30      H      -0.9546368759    -2.7998655626    -3.1184426411
   31      H       1.2045400044    -3.8397522550    -3.3384654160
   32      H      -0.1237770481    -4.2333273778    -1.3717590267
   33      H       4.2347510266    -1.3767642568     0.1136575952
   34      H       2.8013268750    -3.1252860753     0.9411828789
   35      H       3.8367125439    -3.3383339610    -1.2207889298
   36      H       0.9398534264    -2.8145490392     3.1097688912
   37      H      -1.2223538478    -3.8502651099     3.3219085257
   38      H       0.1080254738    -4.2383624180     1.3556104478
   39      H       0.1285656198     4.2355762418    -1.3558200449
   40      H       0.9545375292     2.8086294312    -3.1103601104
   41      H      -1.2027380357     3.8541071422    -3.3228343265
   42      H       3.1160315804     0.9474895549    -2.8057833892
   43      H       3.3277271379    -1.2127620468    -3.8456493134
   44      H       1.3639975144     0.1214559628    -4.2353484791
   45      H       3.8494099888     3.3232133735     1.2166511777
   46      H       4.2363416960     1.3530261786    -0.1086771915
   47      H       2.8140240628     3.1064349896    -0.9449867200
   48      H       1.2217747401     3.8356540707     3.3394717452
   49      H      -0.1097345989     4.2355016574     1.3762676362
   50      H      -0.9425542319     2.8047308408     3.1245031265
   51      H       3.3337963811     1.1997372179     3.8473896789
   52      H       1.3676495224    -0.1305781954     4.2362586058
   53      H       3.1159910001    -0.9571558624     2.8025652404
 ----------------------------------------------------------------

   12   -4943.5532620096      1.10e-09  Convergence criterion met
 Total energy in the final basis set =    -4943.5532620096

         TDDFT/TDA Excitation Energies
 ---------------------------------------------------

 Excited state   1: excitation energy (eV) =    4.6445
 Total energy for state  1:                 -4943.38257926 au
    Multiplicity: Triplet
    Trans. Mom.:  0.0000 X   0.0000 Y   0.0000 Z
    Strength   :     0.0000000000
    D(135) --> V(  1) amplitude =  0.2488
    D(136) --> V(  1) amplitude =  0.8259
    D(136) --> V(  2) amplitude =  0.2391

 Excited state   2: excitation energy (eV) =    4.6447
 Total energy for state  2:                 -4943.38257255 au
    Multiplicity: Triplet
    Trans. Mom.:  0.0000 X   0.0000 Y   0.0000 Z
    Strength   :     0.0000000000
    D(135) --> V(  1) amplitude =  0.3091
    D(137) --> V(  1) amplitude =  0.8137
    D(137) --> V(  4) amplitude = -0.3033

 Excited state   3: excitation energy (eV) =    4.6450
 Total energy for state  3:                 -4943.38256150 au
    Multiplicity: Triplet
    Trans. Mom.:  0.0000 X   0.0000 Y   0.0000 Z
    Strength   :     0.0000000000
    D(135) --> V(  1) amplitude =  0.7742
    D(135) --> V(  2) amplitude = -0.2606
    D(136) --> V(  1) amplitude = -0.2736
    D(137) --> V(  1) amplitude = -0.2872

 Excited state   4: excitation energy (eV) =    4.8000
 Total energy for state  4:                 -4943.37686667 au
    Multiplicity: Triplet
    Trans. Mom.:  0.0000 X   0.0000 Y   0.0000 Z
    Strength   :     0.0000000000
    D(135) --> V(  2) amplitude = -0.2476
    D(135) --> V(  3) amplitude =  0.5284
    D(136) --> V(  2) amplitude =  0.5340
    D(137) --> V(  3) amplitude = -0.2122

 Excited state   5: excitation energy (eV) =    5.0178
 Total energy for state  5:                 -4943.36886115 au
    Multiplicity: Singlet
    Trans. Mom.: -0.2296 X  -0.2236 Y   0.3450 Z
    Strength   :     0.0272600264
    D(137) --> V(  1) amplitude =  0.9644

 Excited state   6: excitation energy (eV) =    5.0188
 Total energy for state  6:                 -4943.36882548 au
    Multiplicity: Singlet
    Trans. Mom.:  0.3155 X  -0.3510 Y  -0.0158 Z
    Strength   :     0.0274154539
    D(135) --> V(  1) amplitude =  0.8565
    D(136) --> V(  1) amplitude = -0.4484

 Excited state   7: excitation energy (eV) =    5.0190
 Total energy for state  7:                 -4943.36881689 au
    Multiplicity: Singlet
    Trans. Mom.: -0.2662 X  -0.2233 Y  -0.3228 Z
    Strength   :     0.0276597544
    D(135) --> V(  1) amplitude =  0.4523
    D(136) --> V(  1) amplitude =  0.8536

 Excited state   8: excitation energy (eV) =    5.1058
 Total energy for state  8:                 -4943.36562856 au
    Multiplicity: Singlet
    Trans. Mom.: -0.0927 X  -0.0024 Y  -0.0276 Z
    Strength   :     0.0011716493
    D(135) --> V(  2) amplitude =  0.3369
    D(135) --> V(  3) amplitude = -0.3631
    D(135) --> V(  4) amplitude = -0.4939
    D(137) --> V(  2) amplitude =  0.6116

 ---------------------------------------------------

                    Orbital Energies (a.u.)
 --------------------------------------------------------------

 Alpha MOs
 -- Occupied --
-66.1317 -66.1134 -66.1134 -66.1134 -66.1134 -66.1127 -66.1127 -66.1127
-66.1127 -66.1127 -66.1127 -66.1127 -66.1127 -66.1127 -66.1127 -66.1127
-66.1127  -5.2930  -5.2775  -5.2775  -5.2775  -5.2775  -5.2769  -5.2769
 -5.2769  -5.2769  -5.2769  -5.2769  -5.2769  -5.2768  -5.2768  -5.2768
 -5.2768  -5.2768  -3.6506  -3.6506  -3.6506  -3.6352  -3.6352  -3.6352
 -3.6352  -3.6352  -3.6352  -3.6352  -3.6352  -3.6352  -3.6352  -3.6352
 -3.6351  -3.6347  -3.6347  -3.6347  -3.6347  -3.6346  -3.6346  -3.6346
 -3.6346  -3.6345  -3.6345  -3.6345  -3.6345  -3.6343  -3.6343  -3.6343
 -3.6343  -3.6343  -3.6343  -3.6343  -3.6343  -3.6342  -3.6342  -3.6342
 -3.6342  -3.6342  -3.6342  -3.6342  -3.6342  -3.6342  -3.6342  -3.6342
 -3.6342  -3.6342  -3.6342  -3.6342  -3.6342  -0.6145  -0.5888  -0.5888
 -0.5888  -0.5459  -0.5458  -0.5458  -0.5412  -0.5412  -0.5386  -0.5385
 -0.5385  -0.5351  -0.4590  -0.4590  -0.4590  -0.4125  -0.3802  -0.3802
 -0.3802  -0.3760  -0.3760  -0.3737  -0.3737  -0.3736  -0.3712  -0.3581
 -0.3580  -0.3580  -0.3580  -0.3562  -0.3562  -0.3562  -0.3518  -0.3518
 -0.3518  -0.3493  -0.3493  -0.3457  -0.3457  -0.3457  -0.3107  -0.3107
 -0.3107  -0.2923  -0.2923  -0.2811  -0.2811  -0.2811  -0.2684  -0.2684
 -0.2684

          Ground-State Mulliken Net Atomic Charges

     Atom                 Charge (a.u.)
  ----------------------------------------
      1 Si                    0.085930
      2 Si                    0.013356
      3 Si                    0.085874
      4 Si                    0.013097
      5 Si                    0.085916
      6 Si                    0.085802
      7 Si                    0.085873
      8 Si                    0.013044
      9 Si                    0.085878
     10 Si                    0.085809
     11 Si                    0.085919
     12 Si                    0.085955
     13 Si                    0.059051
     14 Si                    0.085857
     15 Si                    0.085870
     16 Si                    0.085951
     17 Si                    0.013226
     18 H                    -0.027190
     19 H                    -0.034663
     20 H                    -0.033393
     21 H                    -0.033332
     22 H                    -0.027149
     23 H                    -0.034633
     24 H                    -0.027208
     25 H                    -0.034636
     26 H                    -0.033352
     27 H                    -0.033408
     28 H                    -0.027124
     29 H                    -0.034687
     30 H                    -0.027197
     31 H                    -0.034649
     32 H                    -0.033415
     33 H                    -0.033308
     34 H                    -0.027163
     35 H                    -0.034637
     36 H                    -0.027166
     37 H                    -0.034652
     38 H                    -0.033322
     39 H                    -0.033412
     40 H                    -0.027155
     41 H                    -0.034669
     42 H                    -0.027190
     43 H                    -0.034678
     44 H                    -0.033401
     45 H                    -0.034638
     46 H                    -0.033470
     47 H                    -0.027141
     48 H                    -0.034685
     49 H                    -0.033324
     50 H                    -0.027137
     51 H                    -0.034638
     52 H                    -0.033358
     53 H                    -0.027226
  ----------------------------------------
  Sum of atomic charges =     0.000000

                    Cartesian Multipole Moments
 -----------------------------------------------------------------
    Charge (ESU x 10^10)
                -0.0000
    Dipole Moment (Debye)
         X      -0.0069      Y       0.0028      Z       0.0002
       Tot       0.0074
    Quadrupole Moments (Debye-Ang)
        XX    -258.1607     XY       0.0072     YY    -258.1686
        XZ      -0.0029     YZ      -0.0129     ZZ    -258.1702

 Total job time:  118429.87s(wall), 118417.59s(cpu)
        *  Thank you very much for using Q-Chem.  Have a nice day.  *
