 Q-Chem 5.1, Q-Chem, Inc., Pleasanton, CA (2018)
 Q-Chem 5.1.1 for Intel X86 EM64T Linux

User input:
--------------------------------------------------------------

$molecule
   0 1
  Si  -4.13843274279373     -1.52368399575963     -1.46103301803504
  Si  -1.49194328027506     -4.12716154981670     -1.49226646817110
  Si  -1.46085134904172     -1.52400707002548     -4.13905497858875
  Si  -2.75384127359370     -2.77886191981018     -0.01253581406557
  Si  -1.39407781618095     -1.42322513092244      1.39425203597956
  Ge  -2.77095918068827     -0.02478848739634     -2.77167022690740
  Si  -1.39387457714301      1.42337494273536     -1.39397415976742
  Si  -2.75434155794129      2.77870108690652      0.01236011611949
  Ge  -2.77168053153168      0.02530407383390      2.77160599178525
  Si  -4.13918267710878      1.52361264968086      1.46061346558884
  Si  -1.46082595274683      1.52399089833679      4.13874449676396
  Si  -1.49238842039924      4.12699743548206      1.49206079761528
  Si  -0.01233684367629     -2.77895737266394     -2.75436784260183
  Si  1.39440946786148     -1.42349691229674     -1.39442560007681
  Si  2.75406620323706     -2.77918788597275      0.01234682263733
  Si  0.01233045357382     -2.77865320494054      2.75453686287492
  Si  1.49177691187064     -4.12699183684570      1.49228091748038
  Si  1.46087247516470     -1.52352378362731      4.13914287933709
  Si  4.13880942076561     -1.52391378000357      1.46053018007065
  Si  0.01251757902854      2.77925188448766     -2.75376818623567
  Ge  2.77173022193537      0.02533704586647     -2.77171979720805
  Si  1.46046529394849      1.52394751109049     -4.13870659890291
  Si  1.49221891739795      4.12723243267782     -1.49152090540237
  Si  4.13914532327722      1.52375371247628     -1.46082641890255
  Ge  0.00053170617451     -0.00010079132793      0.00003108116400
  Si  2.75459940718264      2.77882156525079     -0.01232260366631
  Si  -0.01239804117185      2.77893613115948      2.75392261026090
  Ge  2.77179854105238     -0.02510330679736      2.77155504478382
  Si  1.39452217092696      1.42335076879664      1.39418576195692
  H   -5.22673953214155     -0.81594706833294     -0.74898253650315
  H   -4.77455168432976     -2.48005091533037     -2.40754084635678
  H   -2.44742677761666     -4.75287530166772     -2.44748476209858
  H   -0.78951989517219     -5.22592395748090     -0.78983992264541
  H   -0.74913233154333     -0.81679924578135     -5.22790210205163
  H   -2.40782257935763     -2.48047050579413     -4.77434798404812
  H   -3.60043032308166     -3.65312293642845      0.84982582343914
  H   -3.67633221991904      0.84873330972945     -3.67679520110461
  H   -3.60074383034034      3.65287589217108     -0.85026428707832
  H   -3.67678969687190     -0.84832030620435      3.67690364681149
  H   -5.22720370528151      0.81544196635397      0.74856691139030
  H   -4.77561072907051      2.48000191626843      2.40688714437841
  H   -0.74881952628146      0.81618467254851      5.22701719710028
  H   -2.40723161644391      2.48047157477660      4.77483909583701
  H   -2.44772374436277      4.75261481049141      2.44748896735007
  H   -0.79015148585352      5.22579964263912      0.78951665479599
  H   0.85000559358599     -3.65336649021143     -3.60080393767299
  H   3.60046123106927     -3.65379606729360     -0.84984090671786
  H   -0.85010833818256     -3.65287873710219      3.60107511571520
  H   2.44705245567120     -4.75305323785427      2.44747482475179
  H   0.78891213995618     -5.22553017217162      0.78993531302163
  H   2.40732528450143     -2.47989924748753      4.77531972502989
  H   0.74888263979047     -0.81558810409370      5.22734620284110
  H   5.22691143151574     -0.81608689841843      0.74827084006921
  H   4.77508740192627     -2.48028968126658      2.40691759674788
  H   -0.85000824317322      3.65355755146727     -3.60013392240574
  H   3.67674411470940     -0.84811362883428     -3.67726491778198
  H   2.40661890173490      2.48012719596781     -4.77560431297626
  H   0.74781772897303      0.81579700604781     -5.22635319344464
  H   0.78957724086701      5.22549127020686     -0.78852482386353
  H   2.44724345206874      4.75358198656470     -2.44677041422233
  H   4.77535244378419      2.48018740496359     -2.40719682070990
  H   5.22726560596264      0.81567056134337     -0.74885762841711
  H   3.60116888034556      3.65300695595599      0.85011470597199
  H   0.84992387672023      3.65333715352861      3.60039189685475
  H   3.67733598673631      0.84827652015470      3.67664041210619
$end

$rem
   JOBTYPE              sp
   EXCHANGE             b3lyp
   BASIS                def2-tzvp
   CIS_N_ROOTS          4
   CIS_CONVERGENCE      8
   CORRELATION          none
   MAX_SCF_CYCLES       600
   MAX_CIS_CYCLES       50
   SCF_ALGORITHM        diis
   MEM_STATIC           1200
   MEM_TOTAL            8000
   SYMMETRY             false
   SYM_IGNORE           true
   UNRESTRICTED         false
   CIS_SINGLETS         true
   CIS_TRIPLETS         true
   CALC_SOC             true
   SET_ITER             300
   STS_MOM              true
$end
--------------------------------------------------------------

             Standard Nuclear Orientation (Angstroms)
    I     Atom           X                Y                Z
 ----------------------------------------------------------------
    1      Si     -4.1384327428    -1.5236839958    -1.4610330180
    2      Si     -1.4919432803    -4.1271615498    -1.4922664682
    3      Si     -1.4608513490    -1.5240070700    -4.1390549786
    4      Si     -2.7538412736    -2.7788619198    -0.0125358141
    5      Si     -1.3940778162    -1.4232251309     1.3942520360
    6      Ge     -2.7709591807    -0.0247884874    -2.7716702269
    7      Si     -1.3938745771     1.4233749427    -1.3939741598
    8      Si     -2.7543415579     2.7787010869     0.0123601161
    9      Ge     -2.7716805315     0.0253040738     2.7716059918
   10      Si     -4.1391826771     1.5236126497     1.4606134656
   11      Si     -1.4608259527     1.5239908983     4.1387444968
   12      Si     -1.4923884204     4.1269974355     1.4920607976
   13      Si     -0.0123368437    -2.7789573727    -2.7543678426
   14      Si      1.3944094679    -1.4234969123    -1.3944256001
   15      Si      2.7540662032    -2.7791878860     0.0123468226
   16      Si      0.0123304536    -2.7786532049     2.7545368629
   17      Si      1.4917769119    -4.1269918368     1.4922809175
   18      Si      1.4608724752    -1.5235237836     4.1391428793
   19      Si      4.1388094208    -1.5239137800     1.4605301801
   20      Si      0.0125175790     2.7792518845    -2.7537681862
   21      Ge      2.7717302219     0.0253370459    -2.7717197972
   22      Si      1.4604652939     1.5239475111    -4.1387065989
   23      Si      1.4922189174     4.1272324327    -1.4915209054
   24      Si      4.1391453233     1.5237537125    -1.4608264189
   25      Ge      0.0005317062    -0.0001007913     0.0000310812
   26      Si      2.7545994072     2.7788215653    -0.0123226037
   27      Si     -0.0123980412     2.7789361312     2.7539226103
   28      Ge      2.7717985411    -0.0251033068     2.7715550448
   29      Si      1.3945221709     1.4233507688     1.3941857620
   30      H      -5.2267395321    -0.8159470683    -0.7489825365
   31      H      -4.7745516843    -2.4800509153    -2.4075408464
   32      H      -2.4474267776    -4.7528753017    -2.4474847621
   33      H      -0.7895198952    -5.2259239575    -0.7898399226
   34      H      -0.7491323315    -0.8167992458    -5.2279021021
   35      H      -2.4078225794    -2.4804705058    -4.7743479840
   36      H      -3.6004303231    -3.6531229364     0.8498258234
   37      H      -3.6763322199     0.8487333097    -3.6767952011
   38      H      -3.6007438303     3.6528758922    -0.8502642871
   39      H      -3.6767896969    -0.8483203062     3.6769036468
   40      H      -5.2272037053     0.8154419664     0.7485669114
   41      H      -4.7756107291     2.4800019163     2.4068871444
   42      H      -0.7488195263     0.8161846725     5.2270171971
   43      H      -2.4072316164     2.4804715748     4.7748390958
   44      H      -2.4477237444     4.7526148105     2.4474889674
   45      H      -0.7901514859     5.2257996426     0.7895166548
   46      H       0.8500055936    -3.6533664902    -3.6008039377
   47      H       3.6004612311    -3.6537960673    -0.8498409067
   48      H      -0.8501083382    -3.6528787371     3.6010751157
   49      H       2.4470524557    -4.7530532379     2.4474748248
   50      H       0.7889121400    -5.2255301722     0.7899353130
   51      H       2.4073252845    -2.4798992475     4.7753197250
   52      H       0.7488826398    -0.8155881041     5.2273462028
   53      H       5.2269114315    -0.8160868984     0.7482708401
   54      H       4.7750874019    -2.4802896813     2.4069175967
   55      H      -0.8500082432     3.6535575515    -3.6001339224
   56      H       3.6767441147    -0.8481136288    -3.6772649178
   57      H       2.4066189017     2.4801271960    -4.7756043130
   58      H       0.7478177290     0.8157970060    -5.2263531934
   59      H       0.7895772409     5.2254912702    -0.7885248239
   60      H       2.4472434521     4.7535819866    -2.4467704142
   61      H       4.7753524438     2.4801874050    -2.4071968207
   62      H       5.2272656060     0.8156705613    -0.7488576284
   63      H       3.6011688803     3.6530069560     0.8501147060
   64      H       0.8499238767     3.6533371535     3.6003918969
   65      H       3.6773359867     0.8482765202     3.6766404121
 ----------------------------------------------------------------

   13  -17355.7635335033      4.82e-09  Convergence criterion met
 Total energy in the final basis set =   -17355.7635335033

         TDDFT/TDA Excitation Energies
 ---------------------------------------------------

 Excited state   1: excitation energy (eV) =    4.0778
 Total energy for state  1:                -17355.61367744 au
    Multiplicity: Triplet
    Trans. Mom.:  0.0000 X   0.0000 Y   0.0000 Z
    Strength   :     0.0000000000
    D(266) --> V(  1) amplitude =  0.9418

 Excited state   2: excitation energy (eV) =    4.0779
 Total energy for state  2:                -17355.61367260 au
    Multiplicity: Triplet
    Trans. Mom.:  0.0000 X   0.0000 Y   0.0000 Z
    Strength   :     0.0000000000
    D(265) --> V(  1) amplitude =  0.9418

 Excited state   3: excitation energy (eV) =    4.1170
 Total energy for state  3:                -17355.61223675 au
    Multiplicity: Triplet
    Trans. Mom.:  0.0000 X   0.0000 Y   0.0000 Z
    Strength   :     0.0000000000
    D(264) --> V(  1) amplitude =  0.9266

 Excited state   4: excitation energy (eV) =    4.2475
 Total energy for state  4:                -17355.60743931 au
    Multiplicity: Triplet
    Trans. Mom.:  0.0000 X   0.0000 Y   0.0000 Z
    Strength   :     0.0000000000
    D(266) --> V(  2) amplitude =  0.8769
    D(266) --> V(  4) amplitude =  0.3305

 Excited state   5: excitation energy (eV) =    4.2478
 Total energy for state  5:                -17355.60742891 au
    Multiplicity: Triplet
    Trans. Mom.:  0.0000 X   0.0000 Y   0.0000 Z
    Strength   :     0.0000000000
    D(265) --> V(  2) amplitude =  0.8771
    D(265) --> V(  4) amplitude = -0.3300

 Excited state   6: excitation energy (eV) =    4.2934
 Total energy for state  6:                -17355.60575432 au
    Multiplicity: Singlet
    Trans. Mom.:  0.0878 X   0.0011 Y  -0.1070 Z
    Strength   :     0.0020152016
    D(266) --> V(  1) amplitude =  0.9863

 Excited state   7: excitation energy (eV) =    4.2935
 Total energy for state  7:                -17355.60575211 au
    Multiplicity: Singlet
    Trans. Mom.:  0.1068 X  -0.0010 Y   0.0876 Z
    Strength   :     0.0020070975
    D(265) --> V(  1) amplitude =  0.9864

 Excited state   8: excitation energy (eV) =    4.3210
 Total energy for state  8:                -17355.60473793 au
    Multiplicity: Singlet
    Trans. Mom.:  0.0000 X   0.1947 Y   0.0010 Z
    Strength   :     0.0040113716
    D(264) --> V(  1) amplitude =  0.9771

 Excited state   9: excitation energy (eV) =    4.4004
 Total energy for state  9:                -17355.60182285 au
    Multiplicity: Singlet
    Trans. Mom.: -0.0555 X  -0.0001 Y   0.0716 Z
    Strength   :     0.0008848600
    D(266) --> V(  2) amplitude =  0.9843

 Excited state  10: excitation energy (eV) =    4.4004
 Total energy for state 10:                -17355.60182098 au
    Multiplicity: Singlet
    Trans. Mom.: -0.0714 X   0.0001 Y  -0.0553 Z
    Strength   :     0.0008789183
    D(265) --> V(  2) amplitude =  0.9843

 ---------------------------------------------------

                    Orbital Energies (a.u.)
 --------------------------------------------------------------

 Alpha MOs
 -- Occupied --
*******-398.737-398.737-398.737-398.737 -66.124 -66.124 -66.124
-66.124 -66.114 -66.114 -66.114 -66.114 -66.114 -66.114 -66.114
-66.114 -66.114 -66.114 -66.114 -66.114 -66.114 -66.114 -66.114
-66.114 -66.111 -66.111 -66.111 -66.111 -49.783 -49.780 -49.780
-49.780 -49.780 -44.303 -44.303 -44.303 -44.301 -44.301 -44.301
-44.301 -44.301 -44.301 -44.301 -44.301 -44.300 -44.300 -44.300
-44.300  -6.215  -6.213  -6.213  -6.213  -6.213  -5.286  -5.286
 -5.286  -5.286  -5.278  -5.278  -5.278  -5.278  -5.278  -5.278
 -5.278  -5.278  -5.278  -5.277  -5.277  -5.277  -5.277  -5.277
 -5.277  -5.277  -5.275  -5.275  -5.275  -5.275  -4.386  -4.386
 -4.386  -4.384  -4.384  -4.384  -4.384  -4.384  -4.384  -4.384
 -4.384  -4.384  -4.384  -4.384  -4.384  -3.644  -3.644  -3.644
 -3.644  -3.644  -3.644  -3.644  -3.644  -3.643  -3.643  -3.643
 -3.643  -3.636  -3.636  -3.636  -3.636  -3.636  -3.636  -3.636
 -3.636  -3.636  -3.636  -3.636  -3.636  -3.636  -3.636  -3.636
 -3.636  -3.635  -3.635  -3.635  -3.635  -3.635  -3.635  -3.635
 -3.635  -3.635  -3.635  -3.635  -3.635  -3.635  -3.635  -3.635
 -3.635  -3.635  -3.635  -3.635  -3.635  -3.635  -3.635  -3.635
 -3.635  -3.635  -3.635  -3.635  -3.635  -3.635  -3.635  -3.635
 -3.635  -3.633  -3.633  -3.633  -3.633  -3.633  -3.633  -3.633
 -3.633  -3.633  -3.633  -3.633  -3.633  -1.209  -1.209  -1.209
 -1.208  -1.208  -1.207  -1.207  -1.207  -1.207  -1.207  -1.207
 -1.207  -1.207  -1.207  -1.207  -1.207  -1.207  -1.205  -1.205
 -1.205  -1.205  -1.205  -1.205  -1.205  -1.205  -0.632  -0.606
 -0.606  -0.604  -0.584  -0.578  -0.578  -0.570  -0.565  -0.562
 -0.557  -0.557  -0.554  -0.524  -0.524  -0.524  -0.495  -0.490
 -0.490  -0.488  -0.486  -0.482  -0.471  -0.465  -0.465  -0.437
 -0.437  -0.435  -0.401  -0.384  -0.383  -0.383  -0.378  -0.373
 -0.371  -0.369  -0.369  -0.367  -0.359  -0.352  -0.352  -0.350
 -0.348  -0.345  -0.345  -0.344  -0.344  -0.335  -0.334  -0.334
 -0.331  -0.331  -0.331  -0.305  -0.305  -0.305  -0.297  -0.297
 -0.295  -0.292  -0.291  -0.286  -0.286  -0.285  -0.275  -0.273
 -0.273  -0.272  -0.270  -0.264  -0.260  -0.259  -0.259  -0.252
 -0.250  -0.250

          Ground-State Mulliken Net Atomic Charges

     Atom                 Charge (a.u.)
  ----------------------------------------
      1 Si                    0.024286
      2 Si                    0.041342
      3 Si                    0.024222
      4 Si                    0.050716
      5 Si                   -0.046505
      6 Ge                    0.075937
      7 Si                   -0.046447
      8 Si                    0.050687
      9 Ge                    0.075927
     10 Si                    0.024356
     11 Si                    0.024353
     12 Si                    0.041327
     13 Si                    0.050690
     14 Si                   -0.046395
     15 Si                    0.050693
     16 Si                    0.050693
     17 Si                    0.041368
     18 Si                    0.024327
     19 Si                    0.024337
     20 Si                    0.050690
     21 Ge                    0.075894
     22 Si                    0.024436
     23 Si                    0.041384
     24 Si                    0.024355
     25 Ge                    0.047162
     26 Si                    0.050679
     27 Si                    0.050698
     28 Ge                    0.075887
     29 Si                   -0.046364
     30 H                    -0.024462
     31 H                    -0.029448
     32 H                    -0.031462
     33 H                    -0.022904
     34 H                    -0.024380
     35 H                    -0.029436
     36 H                    -0.036339
     37 H                     0.002136
     38 H                    -0.036322
     39 H                     0.002142
     40 H                    -0.024432
     41 H                    -0.029457
     42 H                    -0.024449
     43 H                    -0.029447
     44 H                    -0.031463
     45 H                    -0.022900
     46 H                    -0.036334
     47 H                    -0.036324
     48 H                    -0.036323
     49 H                    -0.031476
     50 H                    -0.022930
     51 H                    -0.029452
     52 H                    -0.024434
     53 H                    -0.024457
     54 H                    -0.029452
     55 H                    -0.036321
     56 H                     0.002144
     57 H                    -0.029459
     58 H                    -0.024497
     59 H                    -0.022933
     60 H                    -0.031480
     61 H                    -0.029450
     62 H                    -0.024430
     63 H                    -0.036321
     64 H                    -0.036333
     65 H                     0.002143
  ----------------------------------------
  Sum of atomic charges =    -0.000000

                    Cartesian Multipole Moments
 -----------------------------------------------------------------
    Charge (ESU x 10^10)
                -0.0000
    Dipole Moment (Debye)
         X       0.0025      Y       0.0016      Z       0.0000
       Tot       0.0030
    Quadrupole Moments (Debye-Ang)
        XX    -436.2664     XY      -0.0008     YY    -436.0574
        XZ      -0.0053     YZ      -0.0003     ZZ    -436.2651

 Total job time:  67665.35s(wall), 239193.23s(cpu)
        *  Thank you very much for using Q-Chem.  Have a nice day.  *
